# vtk DataFile Version 4.2
vtk output
ASCII
DATASET POLYDATA
POINTS 1634 float
195.445 -93.2694 1238.92 195.439 -84.605 1233.07 195.332 -80.4749 1224.22 
195.358 -82.113 1215.8 195.376 -91.4076 1199.35 195.353 -96.4084 1190.07 
195.087 -100.938 1172.15 195.043 -99.3611 1164.91 194.857 -94.4492 1156.53 
195.253 -99.9923 1180.84 195.22 -86.3549 1207.75 88.9131 61.1325 37.9606 
93.7006 43.3067 51.0043 97.8766 25.8593 60.4808 101.157 1.92214 68.6579 
83.6276 60.8928 26.6072 77.6609 60.6368 14.4131 74.0965 60.4551 5.90036 
70.1707 60.2827 -2.29121 31.6377 60.4739 -2.35426 -19.565 60.7281 -2.43805 
-94.6146 61.1006 -2.56085 -133.102 61.2916 -2.62383 -180.04 61.5246 -2.70064 
-231.124 61.7781 -2.78423 104.457 1.1449 83.6025 107.351 0.384042 99.4808 
-234.706 62.0557 8.28997 -242.231 62.5597 28.1853 -246.021 62.8055 37.8654 
-238.432 62.3011 17.9668 -250.09 51.4842 45.2172 -254.355 15.3929 47.06 
-256.394 11.1433 52.5781 -252.431 34.0538 46.9733 -260.678 11.6488 61.7967 
-264.518 12.0788 77.0222 -88.8363 -92.2038 1238.02 -89.0867 -83.1048 1232.39 
-88.9094 -79.345 1224.61 -87.336 -84.5611 1206.42 -86.6732 -90.4835 1196.64 
-86.1106 -95.9888 1185.76 -86.753 -100.524 1167.64 -87.1415 -98.701 1161.28 
-87.4651 -95.1094 1155.04 -88.4551 -80.0565 1215.89 -86.411 -99.6555 1176.41 
173.549 -93.7071 1238.93 152.03 -93.631 1239.05 130.922 -93.4495 1239.06 
112.526 -93.3665 1239.78 86.9841 -93.3348 1239.08 66.4681 -93.2019 1239.2 
41.8608 -92.9776 1239.35 25.7044 -92.7523 1239.41 3.65363 -92.5712 1239.39 
-18.3207 -92.4971 1239.08 -40.0326 -92.4215 1238.78 -63.6979 -92.3722 1238.3 
194.927 -96.5672 1159.59 106.41 0.622753 94.622 -262.874 11.9425 71.0735 
-87.4044 -95.8951 1157.41 11.7398 61.9798 63.8708 -21.8187 59.2753 63.5167 
-43.4321 60.5109 61.7845 -79.9981 62.778 61.3785 -108.616 64.5112 60.4729 
-148.818 68.7579 59.3481 0.886505 61.1289 40.9891 -25.538 61.4985 40.8145 
-48.1978 61.7972 39.9562 -83.6939 62.3044 39.7863 -110.857 63.4977 38.5343 
-143.173 62.1207 37.9823 -6.41263 60.7799 27.593 -27.8988 61.079 27.2521 
-51.0742 61.4118 27.1902 -85.8571 61.9146 27.1977 -111.984 62.285 26.9821 
-138.826 62.6658 26.7729 -11.2379 60.4162 14.6331 -30.0807 60.6912 14.717 
-53.5434 60.9797 13.2056 -88.3135 61.472 12.9033 -113.333 61.8557 13.5656 
-136.883 62.1837 13.1958 -34.4063 60.8018 -2.46233 -52.8533 60.8933 -2.49252 
-112.554 61.1896 -2.59021 94.5452 1.52587 107.175 81.5093 2.63903 116.731 
69.3636 3.74289 127.628 60.4151 4.23447 138.78 52.4461 4.67289 153.372 
91.7449 2.36253 88.2896 76.6484 3.72589 96.7541 61.9274 5.03624 105.678 
49.1069 4.62361 115.777 39.2249 5.17563 128.836 88.3974 3.06641 76.0953 
72.4912 4.53312 83.9547 56.5555 6.01104 91.5315 42.2546 7.30844 99.3436 
31.8063 8.10555 110.334 82.4892 27.8869 64.2792 67.0211 31.6151 71.5823 
50.8944 36.644 78.2355 37.6381 42.2988 85.1752 27.2196 47.231 95.4568 
77.7115 49.3954 56.0118 61.1718 54.9163 62.887 44.9264 56.4282 69.5345 
30.7464 62.2442 76.2747 21.4774 62.7394 84.3174 71.9545 61.3176 42.2361 
55.3042 61.5425 48.2817 39.1346 61.7819 55.0411 24.924 61.6695 61.3291 
-162.73 65.9233 68.7957 -183.401 14.0434 80.4552 -192.579 13.9968 89.259 
-200.371 14.0523 101.088 -207.775 14.2613 119.485 120.077 -75.1725 1116.89 
112.123 -73.6787 1114.38 105.771 -73.3458 1115.59 98.1771 -74.3225 1124.26 
96.3379 -63.4959 1129.35 94.9202 -57.0504 1132.35 92.2258 -53.3872 1134.73 
122.962 -82.9248 1132.84 116.367 -83.7112 1136.87 107.531 -84.2859 1142.27 
103.025 -83.7751 1146.99 94.9599 -68.9511 1163.07 127.42 -87.0668 1140.84 
121.58 -89.0539 1146.11 115.167 -91.2045 1151.84 109.922 -88.7177 1160.84 
105.794 -86.1962 1169.64 101.581 -82.8936 1177.34 96.6433 -81.0593 1185.07 
145.699 -93.8413 1153.27 141.83 -96.7258 1160.6 137.698 -99.0259 1167.7 
133.11 -100.005 1176.46 129.126 -96.9546 1185.07 124.985 -91.5609 1193.72 
115.921 -86.9828 1205.81 136.957 -92.2713 1195.06 141.001 -97.2246 1184.7 
144.305 -102.124 1177.36 147.965 -101.165 1169.54 151.524 -98.3206 1162.97 
154.918 -94.8839 1156.14 153.034 -87.7091 1206.36 155.39 -92.6841 1195.2 
157.44 -97.2109 1185.05 160.025 -102.32 1177.56 162.706 -101.862 1170.17 
165.36 -99.1917 1164.06 169.342 -95.2482 1156.98 173.735 -86.8822 1206.93 
175.381 -92.8688 1196.89 176.85 -98.2976 1187.48 178.056 -101.545 1178.78 
179.59 -101.654 1170.99 181.206 -99.3683 1164.45 183.133 -95.0525 1156.68 
57.1206 -56.8825 1139.32 54.1181 -60.7897 1137.07 52.2767 -66.5512 1134.02 
50.3408 -77.1621 1126.05 40.7823 -75.7889 1117.88 34.7382 -75.9815 1117.98 
28.8043 -77.8541 1122.29 63.2492 -70.1514 1166.77 59.9724 -72.8732 1163.06 
57.0476 -77.5313 1156.16 53.4261 -85.1044 1145.78 46.2988 -85.6403 1138.83 
36.3557 -83.5052 1134.82 30.1084 -81.9226 1131.86 67.4433 -79.451 1185.91 
62.7789 -83.4027 1179.68 58.8573 -87.6764 1170.43 54.194 -92.323 1158.98 
46.4669 -92.5837 1151.63 38.3628 -89.684 1146.23 28.4347 -86.139 1139.63 
48.6173 -86.8609 1204.34 39.3999 -91.3415 1192.89 35.006 -97.5493 1181.89 
31.5687 -101.088 1172.4 26.5025 -99.9258 1165.11 20.432 -96.5838 1158.9 
14.0792 -92.2253 1152.46 8.8767 -94.741 1155.19 -6.34274 -95.3578 1156.4 
-25.6228 -95.3981 1155.9 -45.762 -95.73 1155.04 -66.0442 -95.8305 1154.66 
12.2749 -98.9841 1160.12 -4.3635 -99.309 1161.52 -23.6735 -99.1046 1161.69 
-43.8993 -98.9838 1161.47 -65.0987 -98.8796 1161.22 16.4202 -101.131 1167.81 
-2.22532 -101.398 1168.3 -22.5947 -101.108 1167.94 -43.0265 -100.845 1167.58 
-64.3079 -100.752 1167.3 20.9957 -101.198 1175.56 -0.05927 -100.86 1177.33 
-21.5447 -101.297 1175.8 -42.1684 -101.525 1174.88 -63.4066 -101.549 1175.33 
24.2116 -97.2471 1182.36 1.58795 -97.0686 1182.32 -21.0969 -98.9762 1184.18 
-41.364 -98.8177 1184.98 -62.1409 -98.138 1185.17 24.6456 -93.0985 1191.71 
1.88534 -92.6054 1192.38 -19.7268 -93.326 1193.69 -40.0069 -93.1001 1194.53 
-61.8632 -92.1594 1195.69 24.4199 -88.6157 1203.06 2.71431 -88.5056 1201.63 
-17.7725 -88.0398 1202.44 -38.2268 -86.5621 1204.98 -61.5471 -85.8829 1205.69 
91.821 -83.5683 1209.55 86.8755 -73.0885 1181.37 84.2774 -74.5238 1169.09 
80.2193 -54.3345 1136.55 73.2685 -83.5757 1209.96 77.2051 -73.1389 1182.3 
75.4581 -74.696 1170.32 68.6057 -55.8625 1139.25 172.496 -82.1449 1216.63 
151.43 -83.2002 1216.49 130.049 -84.9548 1216.67 113.889 -83.6503 1215.99 
91.3749 -81.1489 1217.26 70.468 -81.2774 1217 44.0809 -83.4812 1214.76 
25.9042 -84.4532 1214.79 3.71942 -83.0514 1213.93 -16.7409 -82.3311 1214.05 
-37.4784 -81.4144 1215.06 -61.5617 -80.8086 1215.39 172.291 -80.75 1225.36 
150.582 -80.7069 1225.86 129.162 -81.544 1225.88 111.482 -81.3552 1226.51 
91.3264 -81.1737 1225.75 68.3614 -80.9977 1225.56 42.5379 -80.8086 1225.48 
26.4967 -80.3293 1225.97 4.71781 -79.99 1225.66 -16.6763 -80.0667 1225.01 
-37.8847 -79.9382 1224.63 -62.0485 -79.6093 1224.6 172.799 -84.4643 1233.07 
151.304 -84.3391 1233.04 129.84 -84.2558 1233.03 110.78 -84.1126 1233.14 
90.1585 -83.9577 1233.26 67.5292 -83.7877 1233.4 42.0425 -83.5962 1233.55 
26.2579 -83.4776 1233.64 4.58971 -83.3148 1233.77 -17.1717 -83.2439 1233.48 
-38.8283 -83.3176 1232.9 -62.8695 -83.2651 1232.53 118.719 -68.2501 1102.42 
113.505 -49.4009 1056.45 109.521 -36.7639 1024.62 106.061 -23.5727 991.436 
104.226 -15.8585 972.043 100.994 -7.61457 936.459 97.7782 2.60034 906.21 
95.4106 12.8085 875.139 91.6996 15.9648 842.019 89.6093 21.1658 815.08 
85.5237 23.8553 776.576 81.6829 22.5863 742.469 78.7645 21.3183 709.3 
76.7117 20.4256 685.952 73.7474 19.1713 653.065 111.279 -70.0932 1107.68 
104.962 -50.5517 1058.8 100.942 -37.7035 1026.43 98.7222 -21.665 986.212 
97.5784 -18.9837 979.439 91.6072 -5.59594 939.184 88.1068 4.83616 908.506 
85.7195 15.2372 876.823 82.6202 19.6866 834.13 81.7664 21.4191 825.393 
75.1599 24.3284 777.572 71.1615 23.0385 742.808 67.4912 21.5118 702.717 
66.856 21.2244 695.226 61.8057 19.6867 653.501 104.34 -70.0791 1108.97 
90.8946 -51.8351 1061.13 86.9985 -38.8333 1028.39 90.754 -21.9213 986.357 
90.1208 -19.5888 980.488 76.5993 -4.03137 941.016 73.1236 6.07719 910.677 
69.4961 16.2255 878.698 73.0817 21.9734 835.229 71.4606 23.917 826.423 
57.8122 25.071 778.059 52.2834 23.9942 746.863 57.2665 21.9798 703.728 
57.0017 21.6768 696.233 41.6069 20.6184 655.671 95.6082 -67.7241 1106.22 
89.0071 -51.3606 1059.82 84.5014 -38.3298 1026.98 81.1199 -26.6398 997.55 
77.8325 -15.2836 968.963 74.1021 0.998105 941.921 70.6262 10.7957 911.336 
65.9164 20.9302 878.244 60.1897 26.7026 845.122 58.3559 33.3737 812.609 
56.2344 30.7534 782.97 47.0304 24.902 752.85 44.2304 23.2412 720.885 
41.513 22.0454 689.642 38.0366 19.29 661.585 94.9622 -53.6548 1111.23 
88.3196 -34.6779 1064.53 83.8391 -22.0919 1031.63 80.2388 -10.4243 1001.14 
76.9449 1.13675 973.324 73.4862 11.3036 943.217 69.9577 20.6252 911.68 
65.1237 31.638 877.909 62.525 42.1798 846.15 57.8918 52.5213 814.666 
57.9835 60.2123 786.439 54.9445 65.8257 757.384 51.0201 70.4087 723.288 
48.4074 72.3618 692.337 46.3836 72.886 669.448 92.5919 -46.8129 1112.88 
86.6924 -26.8897 1066.13 83.9348 -13.8917 1033.52 80.3066 -2.26013 1003.4 
77.1247 8.50357 974.526 73.9977 18.7547 943.865 70.3787 30.4296 912.302 
65.566 42.7411 879.253 60.9165 55.5129 847.027 57.8624 64.1662 817.197 
56.2721 72.1121 789.829 51.5174 80.7773 759.293 47.0372 87.0112 730.65 
45.4939 87.6646 704.089 41.5411 88.073 676.454 87.6101 -43.5236 1113.38 
82.1203 -24.7529 1066.48 78.191 -13.0384 1036.04 74.9331 -1.53179 1006.19 
71.0737 9.55863 977.007 65.6217 20.4612 945.303 60.4778 32.0176 911.719 
55.7498 43.2945 878.957 51.4628 54.9317 850.324 44.4849 65.8357 812.092 
49.0404 71.9961 790.745 40.1804 78.8837 768.555 32.019 87.5072 730.426 
30.3529 87.4912 706.829 77.0753 -44.6898 1114.99 70.6879 -23.2092 1061.3 
67.3658 -15.9076 1042.23 64.3561 -2.82297 1008.37 60.1163 8.50968 979.139 
52.4077 19.4378 947.837 46.9801 30.5906 915.411 40.3208 42.2437 881.498 
34.1732 54.8302 852.485 26.4528 63.9524 820.617 19.8666 81.2031 763.166 
16.4695 87.2997 732.049 14.9759 87.5681 708.342 64.893 -46.0384 1116.85 
[...]
CELL_DATA 1489
FIELD FieldData 2
MaterialIds 1 1489 int
0 0 0 0 0 0 0 0 0 
0 0 0 0 0 0 0 0 0 
0 0 0 0 0 0 0 0 0 
0 0 0 0 0 0 0 0 0 
0 0 0 0 0 0 0 0 0 
0 0 0 0 0 0 0 0 0 
0 0 0 0 0 0 0 0 0 
0 0 0 0 0 0 0 0 0 
0 0 0 0 0 0 0 0 0 
0 0 0 0 0 0 0 0 0 
0 0 0 0 0 0 0 0 0 
0 0 0 0 0 0 0 0 0 
0 0 0 0 0 0 0 0 0 
0 0 0 0 0 0 0 0 0 
0 0 0 0 0 0 0 0 0 
0 0 0 0 0 0 0 0 0 
0 0 0 0 0 0 0 0 0 
0 0 0 0 0 0 0 0 0 
0 0 0 0 0 0 0 0 0 
0 0 0 0 0 0 0 0 0 
0 0 0 0 0 0 0 0 0 
0 0 0 0 0 0 0 0 0 
0 0 0 0 0 0 0 0 0 
0 0 0 0 0 0 0 0 0 
0 0 0 0 0 0 0 0 0 
0 0 0 0 0 0 0 0 0 
0 0 0 0 0 0 0 0 0 
0 0 0 0 0 0 0 0 0 
0 0 0 0 0 0 0 0 0 
0 0 0 0 0 0 0 0 0 
0 0 0 0 0 0 0 0 0 
0 0 0 0 0 0 0 0 0 
0 0 0 0 0 0 0 0 0 
0 0 0 0 0 0 0 0 0 
0 0 0 0 0 0 0 0 0 
0 0 0 0 0 0 0 0 0 
0 0 0 0 0 0 0 0 0 
0 0 0 0 0 0 0 0 0 
0 0 0 0 0 0 0 0 0 
0 0 0 0 0 0 0 0 0 
0 0 0 0 0 0 0 0 0 
0 0 0 0 0 0 0 0 0 
0 0 0 0 0 0 0 0 0 
0 0 0 0 0 0 0 0 0 
0 0 0 0 0 0 0 0 0 
0 0 0 0 0 0 0 0 0 
0 0 0 0 0 0 0 0 0 
0 0 0 0 0 0 0 0 0 
0 0 0 0 0 0 0 0 0 
0 0 0 0 0 0 0 0 0 
0 0 0 0 0 0 0 0 0 
0 0 0 0 0 0 0 0 0 
0 0 0 0 0 0 0 0 0 
0 0 0 0 0 0 0 0 0 
0 0 0 0 0 0 0 0 0 
0 0 0 0 0 0 0 0 0 
0 0 0 0 0 0 0 0 0 
0 0 0 0 0 0 0 0 0 
0 0 0 0 0 0 0 0 0 
0 0 0 0 0 0 0 0 0 
0 0 0 0 0 0 0 0 0 
0 0 0 0 0 0 0 0 0 
0 0 0 0 0 0 0 0 0 
0 0 0 0 0 0 0 0 0 
0 0 0 0 0 0 0 0 0 
0 0 0 0 0 0 0 0 0 
0 0 0 0 0 0 0 0 0 
0 0 0 0 0 0 0 0 0 
0 0 0 0 0 0 0 0 0 
0 0 0 0 0 0 0 0 0 
0 0 0 0 0 0 0 0 0 
0 0 0 0 0 0 0 0 0 
0 0 0 0 0 0 0 0 0 
0 0 0 0 0 0 0 0 0 
0 0 0 0 0 0 0 0 0 
0 0 0 0 0 0 0 0 0 
0 0 0 0 0 0 0 0 0 
0 0 0 0 0 0 0 0 0 
0 0 0 0 0 0 0 0 0 
0 0 0 0 0 0 0 0 0 
0 0 0 0 0 0 0 0 0 
0 0 0 0 0 0 0 0 0 
0 0 0 0 0 0 0 0 0 
0 0 0 0 0 0 0 0 0 
0 0 0 0 0 0 0 0 0 
0 0 0 0 0 0 0 0 0 
0 0 0 0 0 0 0 0 0 
0 0 0 0 0 0 0 0 0 
0 0 0 0 0 0 0 0 0 
0 0 0 0 0 0 0 0 0 
0 0 0 0 0 0 0 0 0 
0 0 0 0 0 0 0 0 0 
0 0 0 0 0 0 0 0 0 
0 0 0 0 0 0 0 0 0 
0 0 0 0 0 0 0 0 0 
0 0 0 0 0 0 0 0 0 
0 0 0 0 0 0 0 0 0 
0 0 0 0 0 0 0 0 0 
0 0 0 0 0 0 0 0 0 
0 0 0 0 0 0 0 0 0 
0 0 0 0 0 0 0 0 0 
0 0 0 0 0 0 0 0 0 
0 0 0 0 0 0 0 0 0 
0 0 0 0 0 0 0 0 0 
0 0 0 0 0 0 0 0 0 
0 0 0 0 0 0 0 0 0 
0 0 0 0 0 0 0 0 0 
0 0 0 0 0 0 0 0 0 
0 0 0 0 0 0 0 0 0 
0 0 0 0 0 0 0 0 0 
0 0 0 0 0 0 0 0 0 
0 0 0 0 0 0 0 0 0 
0 0 0 0 0 0 0 0 0 
0 0 0 0 0 0 0 0 0 
0 0 0 0 0 0 0 0 0 
0 0 0 0 0 0 0 0 0 
0 0 0 0 0 0 0 0 0 
0 0 0 0 0 0 0 0 0 
0 0 0 0 0 0 0 0 0 
0 0 0 0 0 0 0 0 0 
0 0 0 0 0 0 0 0 0 
0 0 0 0 0 0 0 0 0 
0 0 0 0 0 0 0 0 0 
0 0 0 0 0 0 0 0 0 
0 0 0 0 0 0 0 0 0 
0 0 0 0 0 0 0 0 0 
0 0 0 0 0 0 0 0 0 
0 0 0 0 0 0 0 0 0 
0 0 0 0 0 0 0 0 0 
0 0 0 0 0 0 0 0 0 
0 0 0 0 0 0 0 0 0 
0 0 0 0 0 0 0 0 0 
0 0 0 0 0 0 0 0 0 
0 0 0 0 0 0 0 0 0 
0 0 0 0 0 0 0 0 0 
0 0 0 0 0 0 0 0 0 
0 0 0 0 0 0 0 0 0 
0 0 0 0 0 0 0 0 0 
0 0 0 0 0 0 0 0 0 
0 0 0 0 0 0 0 0 0 
0 0 0 0 0 0 0 0 0 
0 0 0 0 0 0 0 0 0 
0 0 0 0 0 0 0 0 0 
0 0 0 0 0 0 0 0 0 
0 0 0 0 0 0 0 0 0 
0 0 0 0 0 0 0 0 0 
0 0 0 0 0 0 0 0 0 
0 0 0 0 0 0 0 0 0 
0 0 0 0 0 0 0 0 0 
0 0 0 0 0 0 0 0 0 
0 0 0 0 0 0 0 0 0 
0 0 0 0 0 0 0 0 0 
0 0 0 0 0 0 0 0 0 
0 0 0 0 0 0 0 0 0 
0 0 0 0 0 0 0 0 0 
0 0 0 0 0 0 0 0 0 
0 0 0 0 0 0 0 0 0 
0 0 0 0 0 0 0 0 0 
0 0 0 0 0 0 0 0 0 
0 0 0 0 0 0 0 0 0 
0 0 0 0 0 0 0 0 0 
0 0 0 0 0 0 0 0 0 
0 0 0 0 0 0 0 0 0 
0 0 0 0 0 0 0 0 0 
0 0 0 0 0 0 0 0 0 
0 0 0 0 
METADATA
INFORMATION 0

GroupIds 1 1489 float
0 0 0 0 0 0 0 0 0 
0 0 0 0 0 0 0 0 0 
0 0 0 0 0 0 0 0 0 
0 0 0 0 0 0 0 0 0 
0 0 0 0 0 0 0 0 0 
0 0 0 0 0 0 0 0 0 
0 0 0 0 0 0 0 0 0 
0 0 0 0 0 0 0 0 0 
0 0 0 0 0 0 0 0 0 
0 0 0 0 0 0 0 0 0 
0 0 0 0 0 0 0 0 0 
0 0 0 0 0 0 0 0 0 
0 0 0 0 0 0 0 0 0 
0 0 0 0 0 0 0 0 0 
0 0 0 0 0 0 0 0 0 
0 0 0 0 0 0 0 0 0 
0 0 0 0 0 0 0 0 0 
0 0 0 0 0 0 0 0 0 
0 0 0 0 0 0 0 0 0 
0 0 0 0 0 0 0 0 0 
0 0 0 0 0 0 0 0 0 
0 0 0 0 0 0 0 0 0 
0 0 0 0 0 0 0 0 0 
0 0 0 0 0 0 0 0 0 
0 0 0 0 0 0 0 0 0 
0 0 0 0 0 0 0 0 0 
0 0 0 0 0 0 0 0 0 
0 0 0 0 0 0 0 0 0 
0 0 0 0 0 0 0 0 0 
0 0 0 0 0 0 0 0 0 
0 0 0 0 0 0 0 0 0 
0 0 0 0 0 0 0 0 0 
0 0 0 0 0 0 0 0 0 
0 0 0 0 0 0 0 0 0 
0 0 0 0 0 0 0 0 0 
0 0 0 0 0 0 0 0 0 
0 0 0 0 0 0 0 0 0 
0 0 0 0 0 0 0 0 0 
0 0 0 0 0 0 0 0 0 
0 0 0 0 0 0 0 0 0 
0 0 0 0 0 0 0 0 0 
0 0 0 0 0 0 0 0 0 
0 0 0 0 0 0 0 0 0 
0 0 0 0 0 0 0 0 0 
0 0 0 0 0 0 0 0 0 
0 0 0 0 0 0 0 0 0 
0 0 0 0 0 0 0 0 0 
0 0 0 0 0 0 0 0 0 
0 0 0 0 0 0 0 0 0 
0 0 0 0 0 0 0 0 0 
0 0 0 0 0 0 0 0 0 
0 0 0 0 0 0 0 0 0 
0 0 0 0 0 0 0 0 0 
0 0 0 0 0 0 0 0 0 
0 0 0 0 0 0 0 0 0 
0 0 0 0 0 0 0 0 0 
0 0 0 0 0 0 0 0 0 
0 0 0 0 0 0 0 0 0 
0 0 0 0 0 0 0 0 0 
0 0 0 0 0 0 0 0 0 
0 0 0 0 0 0 0 0 0 
0 0 0 0 0 0 0 0 0 
0 0 0 0 0 0 0 0 0 
0 0 0 0 0 0 0 0 0 
0 0 0 0 0 0 0 0 0 
0 0 0 0 0 0 0 0 0 
0 0 0 0 0 0 0 0 0 
0 0 0 0 0 0 0 0 0 
0 0 0 0 0 0 0 0 0 
0 0 0 0 0 0 0 0 0 
0 0 0 0 0 0 0 0 0 
0 0 0 0 0 0 0 0 0 
0 0 0 0 0 0 0 0 0 
0 0 0 0 0 0 0 0 0 
0 0 0 0 0 0 0 0 0 
0 0 0 0 0 0 0 0 0 
0 0 0 0 0 0 0 0 0 
0 0 0 0 0 0 0 0 0 
0 0 0 0 0 0 0 0 0 
0 0 0 0 0 0 0 0 0 
0 0 0 0 0 0 0 0 0 
0 0 0 0 0 0 0 0 0 
0 0 0 0 0 0 0 0 0 
0 0 0 0 0 0 0 0 0 
0 0 0 0 0 0 0 0 0 
0 0 0 0 0 0 0 0 0 
0 0 0 0 0 0 0 0 0 
0 0 0 0 0 0 0 0 0 
0 0 0 0 0 0 0 0 0 
0 0 0 0 0 0 0 0 0 
0 0 0 0 0 0 0 0 0 
0 0 0 0 0 0 0 0 0 
0 0 0 0 0 0 0 0 0 
0 0 0 0 0 0 0 0 0 
0 0 0 0 0 0 0 0 0 
0 0 0 0 0 0 0 0 0 
0 0 0 0 0 0 0 0 0 
0 0 0 0 0 0 0 0 0 
0 0 0 0 0 0 0 0 0 
0 0 0 0 0 0 0 0 0 
0 0 0 0 0 0 0 0 0 
0 0 0 0 0 0 0 0 0 
0 0 0 0 0 0 0 0 0 
0 0 0 0 0 0 0 0 0 
0 0 0 0 0 0 0 0 0 
0 0 0 0 0 0 0 0 0 
0 0 0 0 0 0 0 0 0 
0 0 0 0 0 0 0 0 0 
0 0 0 0 0 0 0 0 0 
0 0 0 0 0 0 0 0 0 
0 0 0 0 0 0 0 0 0 
0 0 0 0 0 0 0 0 0 
0 0 0 0 0 0 0 0 0 
0 0 0 0 0 0 0 0 0 
0 0 0 0 0 0 0 0 0 
0 0 0 0 0 0 0 0 0 
0 0 0 0 0 0 0 0 0 
0 0 0 0 0 0 0 0 0 
0 0 0 0 0 0 0 0 0 
0 0 0 0 0 0 0 0 0 
0 0 0 0 0 0 0 0 0 
0 0 0 0 0 0 0 0 0 
0 0 0 0 0 0 0 0 0 
0 0 0 0 0 0 0 0 0 
0 0 0 0 0 0 0 0 0 
0 0 0 0 0 0 0 0 0 
0 0 0 0 0 0 0 0 0 
0 0 0 0 0 0 0 0 0 
0 0 0 0 0 0 0 0 0 
0 0 0 0 0 0 0 0 0 
0 0 0 0 0 0 0 0 0 
0 0 0 0 0 0 0 0 0 
0 0 0 0 0 0 0 0 0 
0 0 0 0 0 0 0 0 0 
0 0 0 0 0 0 0 0 0 
0 0 0 0 0 0 0 0 0 
0 0 0 0 0 0 0 0 0 
0 0 0 0 0 0 0 0 0 
0 0 0 0 0 0 0 0 0 
0 0 0 0 0 0 0 0 0 
0 0 0 0 0 0 0 0 0 
0 0 0 0 0 0 0 0 0 
0 0 0 0 0 0 0 0 0 
0 0 0 0 0 0 0 0 0 
0 0 0 0 0 0 0 0 0 
0 0 0 0 0 0 0 0 0 
0 0 0 0 0 0 0 0 0 
0 0 0 0 0 0 0 0 0 
0 0 0 0 0 0 0 0 0 
0 0 0 0 0 0 0 0 0 
0 0 0 0 0 0 0 0 0 
0 0 0 0 0 0 0 0 0 
0 0 0 0 0 0 0 0 0 
0 0 0 0 0 0 0 0 0 
0 0 0 0 0 0 0 0 0 
0 0 0 0 0 0 0 0 0 
0 0 0 0 0 0 0 0 0 
0 0 0 0 0 0 0 0 0 
0 0 0 0 0 0 0 0 0 
0 0 0 0 0 0 0 0 0 
0 0 0 0 0 0 0 0 0 
0 0 0 0 0 0 0 0 0 
0 0 0 0 0 0 0 0 0 
0 0 0 0 0 0 0 0 0 
0 0 0 0 0 0 0 0 0 
0 0 0 0 
METADATA
INFORMATION 0

